1.data (written by ASE) 

3070 	 atoms 
4  atom types
0.0                      41  xlo xhi
0.0                      41  ylo yhi
0.0                      41  zlo zhi


Atoms 

     1   4      32.575929000000002      20.548249999999999      21.911930999999999
     2   4               14.462821                0.013859      32.271842999999997
     3   4      6.2795909999999999      34.470883000000001      31.045577000000002
     4   4      18.500229999999998      9.9588249999999992      24.662655999999998
     5   4               10.611616      8.8086110000000009               22.769686
     6   4      36.893866000000003      2.3578130000000002               28.696745
     7   4               24.794165      19.941746999999999      32.560867000000002
     8   4      13.116243000000001      38.065837000000002      27.144867000000001
     9   4      17.897767999999999      34.920997999999997               10.221071
    10   4      35.588022000000002      28.667079000000001      32.071376000000001
    11   4      16.941352999999999      38.667520000000003      35.720784000000002
    12   4               24.767754      38.159030999999999      15.395656000000001
    13   4      24.410070999999999      18.310341000000001               17.589167
    14   4      34.405743000000001      2.4494570000000002      14.821358999999999
    15   4      11.924296999999999      4.7249600000000003      22.312183000000001
    16   4               15.311589      19.707896999999999      39.794778999999998
    17   4      36.154212000000001               15.449424      5.9906899999999998
    18   4      32.953800000000001               39.216918               11.859003
    19   4      23.672564999999999      35.099286999999997      26.774346000000001
    20   4               13.553333               12.453061   0.0023600000000000001
    21   4      16.489529999999998               16.479253      28.015388000000002
    22   4                27.42174      24.807162000000002      38.341679999999997
    23   4      18.962634000000001      16.457325999999998               26.888925
    24   4      34.541063999999999               11.046056                 2.25448
    25   4      31.458919000000002                26.49615      7.2612129999999997
    26   4      23.293219000000001               12.900093      31.371024999999999
    27   4      18.136347000000001      11.297910999999999               17.172442
    28   4      14.655227999999999      25.128789000000001      29.871742000000001
    29   4      18.549098999999998      38.185147999999998      20.199881000000001
    30   4      21.481459000000001      17.818608000000001               12.701311
    31   4                3.148323               11.206825      40.000458000000002
    32   4      9.5774329999999992               12.127305               34.994481
    33   4      14.982201999999999      28.574542999999998               28.822713
    34   4      17.933326999999998      19.075409000000001               29.932648
    35   4      33.048203999999998      38.670337000000004      5.5197669999999999
    36   4      36.260548999999997                3.938215      7.7950929999999996
    37   4               13.274784      18.005707999999998               16.354267
    38   4               14.560603      9.1958500000000001                0.534134
    39   4      6.2777479999999999                7.166906      4.7277380000000004
    40   4      12.207534000000001      37.641931999999997      36.825583000000002
    41   4      22.951678999999999                1.323302      33.951402999999999
    42   4                38.99736      3.6310850000000001               25.393456
    43   4               19.959716               24.319015               28.276588
    44   4      33.252104000000003               27.562441               12.665367
    45   4      19.994212999999998               10.735362      8.7488489999999999
    46   4      31.115829000000002               11.576815      2.5569130000000002
    47   4      39.793197999999997               12.274103      28.995951000000002
    48   4      4.7975750000000001      22.893367000000001                1.620306
    49   4      37.886389999999999      20.823249000000001                5.105531
    50   4               19.141721      36.298245999999999      38.809367000000002
    51   4    0.019952000000000001      11.479571999999999      22.540741000000001
    52   4      32.720588999999997      19.130960000000002      37.433028999999998
    53   4      14.538603999999999               25.117459      26.028369000000001
    54   4      22.939603999999999      3.8262939999999999      3.8245710000000002
    55   4      25.049205000000001    0.034125000000000003      28.428986999999999
    56   4      16.729126000000001      29.677810000000001      24.915583000000002
    57   4      5.4821260000000001               17.225977      16.531476000000001
    58   4      32.731316999999997      19.864329000000001      4.2237340000000003
    59   4      18.331614999999999               19.912851      39.850977999999998
    60   4      13.308318999999999      27.149834999999999               14.430045
    61   4      19.920936999999999      32.903897000000001      15.520517999999999
    62   4      25.742222000000002      9.1783090000000005      21.626186000000001
    63   4      15.583132000000001               18.687811               21.294414
    64   4      35.757880999999998      35.975709000000002      20.825530000000001
    65   4      20.609725000000001      7.0609349999999997      8.2703989999999994
    66   4      38.158858000000002               29.002682      37.216211000000001
    67   4               14.768011      14.586819999999999     0.65644800000000003
    68   4                28.42202               10.929105      12.667139000000001
    69   4      34.831136000000001               11.417398               23.032487
    70   4      16.970593000000001      30.201585000000001      17.506872999999999
    71   4      2.0647120000000001      34.267749000000002               28.526854
    72   4               13.669494               36.923299     0.90962399999999999
    73   4      29.737584999999999      28.167832000000001               16.378304
    74   4      17.528089000000001      20.570381000000001      5.1299380000000001
    75   4      33.540719000000003      1.6863999999999999               17.357087
    76   4               20.813644      16.986799000000001      15.839912999999999
    77   4      22.528970000000001      5.7456829999999997               36.007033
    78   4      37.234718999999998      20.363036999999998               16.382624
    79   4      37.953862999999998      5.0758799999999997               33.126179
    80   4      11.532242999999999               33.933031      1.9250160000000001
    81   4      39.156314999999999      28.381416000000002               34.998213
    82   4      24.330535999999999               12.864618      9.7376179999999994
    83   4               15.542465               39.999364               33.565911
    84   4      7.2823469999999997      2.7555890000000001      36.600946999999998
    85   4               21.989207      28.706917000000001      37.177021000000003
    86   4               11.750501      35.729947000000003      22.049738999999999
    87   4      5.4636100000000001      33.563743000000002      15.835862000000001
    88   4      31.073699999999999      27.953859999999999      30.738333999999998
    89   4      28.975888999999999               34.741073               28.382358
    90   4      32.378993000000001      23.857233999999998               11.407401
    91   4      38.697896999999998      23.181018999999999      2.0699100000000001
    92   4      20.871220000000001      35.879738000000003      39.957244000000003
    93   4      9.4460250000000006      19.340295999999999      20.841764999999999
    94   4      20.311907000000001     0.44338300000000003      36.740780000000001
    95   4      39.998744000000002      16.749980000000001      32.060026000000001
    96   4      4.5572600000000003      2.5182180000000001               13.187377
    97   4                4.261895      36.727651000000002                 7.85595
    98   4      3.4295879999999999   0.0011150000000000001      8.2317599999999995
    99   4      4.8907850000000002      28.128088999999999               21.478945
   100   4      36.431230999999997               10.803053      15.577451999999999
   101   4      34.399262999999998      31.306992000000001      8.3607499999999995
   102   4      28.945751000000001      30.038913000000001               20.893369
   103   4      11.148820000000001      23.098932000000001      39.710095000000003
   104   4      3.6888420000000002      13.068213999999999      3.3918550000000001
   105   4      21.722784999999998      12.394398000000001      2.7714129999999999
   106   4      20.146478999999999      35.782474000000001               10.086169
   107   4                3.406412                0.014567      14.179855999999999
   108   4      29.123176999999998               12.644423               10.366201
   109   4      37.571693000000003      32.813397999999999      33.288324000000003
   110   4      38.131965000000001      6.3628590000000003               35.115828
   111   4      2.5284409999999999      39.987571000000003      33.736153999999999
   112   4      8.6262120000000007      29.226345999999999      13.828761999999999
   113   4      35.753337000000002      37.192079999999997      34.441772999999998
   114   4      21.929214999999999      37.297226000000002      22.166567000000001
   115   4      34.979664999999997    0.097956000000000001               13.754495
   116   4               15.407968      22.158432999999999      3.2325900000000001
   117   4               12.323807      22.585813000000002      25.574971999999999
   118   4               22.282073      8.3884539999999994      8.8224409999999995
   119   4      20.307970999999998      22.752486000000001      32.675229999999999
   120   4               14.853949      7.4467410000000003      29.373563000000001
   121   4      31.904392999999999     0.40090100000000001               19.162264
   122   4               18.916045      25.819600999999999      34.099175000000002
   123   4      31.049385000000001               17.297331      2.1854149999999999
   124   4      9.1410230000000006               26.251745      29.295843000000001
   125   4      5.9073640000000003      13.749447999999999      4.7398699999999998
   126   4      18.064585000000001               25.721902      20.100888000000001
   127   4      23.150656000000001      21.455141000000001      22.819300999999999
   128   4      19.317841999999999      28.218154999999999      36.020809999999997
   129   4               17.964831      37.749039000000003      8.0094720000000006
   130   4                22.61909      31.086507999999998               40.000073
   131   4               25.384273      5.6905999999999999               17.947118
   132   4                 4.20411      18.362487999999999      7.6807930000000004
   133   4      16.624438999999999      35.969394000000001      38.177793000000001
   134   4      38.471317999999997               32.761018      38.492235000000001
   135   4      1.8013349999999999      16.627728000000001      6.1451060000000002
   136   4      21.119537000000001      8.5725090000000002                40.00112
   137   4      11.805046000000001      33.912314000000002               12.414533
   138   4      30.443536999999999               24.572975      37.129558000000003
   139   4      15.691672000000001                5.537496      31.020596999999999
   140   4               20.723267      21.831178999999999      23.131405999999998
   141   4      3.0430090000000001               15.844142      24.400662000000001
   142   4      39.044750000000001                 12.9497     0.34620099999999998
   143   4                30.77571      25.123933000000001               16.651799
   144   4      21.605409999999999      21.108201000000001      29.219132999999999
   145   4               15.932912               27.365247      26.381505000000001
   146   4      20.466003000000001               27.045983      18.397932000000001
   147   4      33.297156000000001               23.642567      2.4257909999999998
   148   4               19.233152      39.377133999999998               10.337788
   149   4                1.303434                1.444758      7.5787979999999999
   150   4      22.061126999999999      33.188875000000003      7.3712540000000004
   151   4      37.571238000000001      38.024546000000001               16.883277
   152   4      11.960800000000001      25.164073999999999      32.018149999999999
   153   4               30.431372                1.564821      24.325962000000001
   154   4      1.0625990000000001      24.700970999999999      20.027515000000001
   155   4               13.587474      15.579186999999999      17.430354999999999
   156   4      29.692374000000001      18.941846999999999      34.095905000000002
   157   4      25.261365999999999               14.159535  0.00080199999999999998
   158   4      24.894898000000001      28.018346000000001      8.7853840000000005
   159   4      12.350282999999999      26.026949999999999      21.030017000000001
   160   4      38.190057000000003      25.802541999999999               24.084989
   161   4      11.820817999999999      3.4036390000000001               25.649645
   162   4               18.985706      13.034867999999999                13.47711
   163   4      31.665102999999998      31.680748000000001      18.111875999999999
   164   4      2.0148269999999999               12.044394     0.88852399999999998
   165   4      37.621180000000003               13.423147      14.576684999999999
   166   4      18.903587000000002      5.0783480000000001      5.7151069999999997
   167   4      16.383728999999999               24.621941      33.784953999999999
   168   4      34.579369999999997      32.867471000000002               28.636301
   169   4      11.707254000000001      4.9759529999999996      16.427350000000001
   170   4      37.331238999999997               28.236176      20.350892999999999
   171   4      30.983302999999999      1.9743630000000001    0.015154000000000001
   172   4      8.2530789999999996      32.675457000000002      9.2320930000000008
   173   4      22.775131999999999               10.542975      29.689879999999999
   174   4    0.016334000000000001      30.871472000000001      24.641190999999999
   175   4      2.7360820000000001      19.189838999999999      38.622638999999999
   176   4      7.5755280000000003      5.0241749999999996               26.775064
   177   4      8.7661020000000001      27.762194999999998      2.5346359999999999
   178   4      16.307193999999999      3.4932310000000002               18.102967
   179   4      10.145656000000001               12.953528      21.154433999999998
   180   4      4.9996219999999996      8.2958669999999994               26.839223
   181   4               15.947479      28.026268999999999      15.682449999999999
   182   4      6.3614990000000002               20.333568               13.492049
   183   4               24.362423      1.5123489999999999      24.263151000000001
   184   4                 22.8645      8.6821439999999992      17.270782000000001
   185   4      29.093440000000001               21.520139      39.945400999999997
   186   4               13.305793               24.035705      33.355648000000002
   187   4                4.777056      24.004007999999999      33.625889999999998
   188   4                25.11027      5.6164589999999999               36.701687
   189   4      24.357641000000001      24.738507999999999      34.756020999999997
   190   4               24.240174               18.226526      26.156732999999999
   191   4               33.873275      10.522126999999999               14.420833
   192   4      19.486792999999999      24.697064999999998      3.2020019999999998
   193   4      35.524979000000002      31.363237999999999      33.970222999999997
   194   4      18.729258000000002                5.236739      8.8066669999999991
   195   4      25.805502000000001      12.772062999999999                15.74588
   196   4      19.289629000000001               20.999457                8.279674
   197   4               29.234579      10.922874999999999      4.9474770000000001
   198   4               20.185219               31.832397               12.493864
   199   4               12.404517   0.0092890000000000004      34.105913000000001
   200   4                35.46819      10.975035999999999               33.586945
   201   4      12.259130000000001      13.280640999999999               27.987496
   202   4      18.386586999999999      23.680122000000001      33.894191999999997
   203   4      19.625489999999999      34.829704999999997                3.436931
   204   4      15.041537999999999      27.004231000000001      2.3689830000000001
   205   4      23.453679000000001      19.221541999999999      12.031173000000001
   206   4      9.5916910000000009      10.739909000000001      39.103050000000003
   207   4      30.648216000000001      6.3189299999999999               31.708935
   208   4               13.445468      22.853923000000002      10.718591999999999
   209   4               15.832459               38.538325      27.648174000000001
   210   4      32.375826000000004      34.368102999999998               37.786296
   211   4      24.024615000000001               17.442985      10.865227000000001
   212   4      4.1353030000000004      4.8814659999999996      8.2801810000000007
   213   4               28.823691      30.328582999999998      23.211313000000001
   214   4      8.3210960000000007      21.457294000000001      31.656286999999999
   215   4               36.856797      4.7334120000000004      29.526903999999998
   216   4      30.972940999999999      10.769296000000001      26.796620999999998
   217   4      20.541886999999999      30.787209000000001      17.969957000000001
   218   4      15.764685999999999               30.417057      35.464261999999998
   219   4               26.291729               28.289164      14.291069999999999
   220   4      6.2210520000000002      36.480491999999998                12.13898
   221   4      30.794786999999999      29.265056999999999               17.996278
   222   4      33.465997000000002               34.869653      8.1081610000000008
   223   4      7.4230039999999997      35.021375999999997      28.821860999999998
   224   4      32.511778999999997      20.743877000000001               15.453308
   225   4               36.486314      39.259520999999999                14.83112
   226   4      25.254255000000001      12.404985999999999               32.245469
   227   4      12.603149999999999               15.339769      39.301763000000001
   228   4      32.715077999999998      36.318784999999998                17.72627
   229   4      17.854697000000002               13.547312      4.4020330000000003
   230   4      22.868538999999998               11.201152      38.961399999999998
   231   4      28.917909999999999      8.5464979999999997      29.611447999999999
   232   4      14.648116999999999               16.767011      23.597262000000001
   233   4               14.503665               12.660779      2.7525569999999999
   234   4      37.101008999999998                13.27013      21.667912999999999
   235   4      20.282596999999999      11.384873000000001               32.331688
   236   4      35.907812999999997      36.010112999999997                1.820031
   237   4      17.400397000000002               13.367711      10.773130999999999
   238   4               31.470789      14.771463000000001               22.457165
   239   4      26.794671999999998      23.156133000000001      19.542560000000002
   240   4      20.246372999999998               31.364677      5.4684200000000001
   241   4      25.210758999999999               19.254984      36.685467000000003
   242   4                 8.01708      7.8213290000000004               14.919603
   243   4      21.185441000000001               39.996997      37.799382999999999
   244   4      7.2938400000000003      2.8133940000000002      9.5953710000000001
   245   4      29.796976000000001      24.071974000000001      39.999102000000001
   246   4      16.103691999999999      8.6905900000000003               11.986905
   247   4      35.585120000000003      25.904191999999998      4.6135279999999996
   248   4               17.989528      36.410035999999998      19.018553000000001
   249   4               37.496288      18.365235999999999      37.046379999999999
   250   4      3.7195100000000001               26.861946      22.993089999999999
   251   4      2.4520029999999999      26.816811999999999      13.116638999999999
   252   4     0.38926300000000003      7.6950989999999999                2.332363
   253   4      8.8316780000000001      38.600090000000002      30.184771000000001
   254   4               15.331939      5.0937020000000004      27.658173999999999
   255   4      18.837669999999999      28.033156999999999               23.305868
   256   4                1.798373      3.2002640000000002                4.307957
   257   4      25.615099000000001      38.663184999999999      37.905110000000001
   258   4               24.856178      32.463903000000002      39.128380999999997
   259   4               30.549184               20.081764               26.122788
   260   4      3.7325680000000001               10.146029      28.241478000000001
   261   4               17.754883      36.490963999999998      16.672187000000001
   262   4      11.265321999999999      8.9541749999999993                32.53145
   263   4      29.295615999999999      14.979540999999999      18.381637999999999
   264   4               24.433104      32.886358999999999      8.6378819999999994
   265   4      19.681387999999998      6.7584299999999997                22.49568
   266   4      24.150148000000002      29.153116000000001      36.984990000000003
   267   4      36.423861000000002      3.8622670000000001      24.377597999999999
   268   4      12.998390000000001      6.8171359999999996                1.474988
   269   4               22.545358               17.605245               33.346052
   270   4     0.57515099999999997      6.4197870000000004      8.0213059999999992
   271   4      37.436760999999997      1.6199509999999999      9.3747240000000005
   272   4      21.482040999999999                1.129621               17.124706
   273   4               10.046236      7.3951250000000002               16.969963
   274   4      32.337316999999999      21.629238999999998                 2.35121
   275   4      18.509450000000001      28.614612999999999      32.425992999999998
   276   4      1.8503989999999999      5.8098979999999996                0.002264
   277   4               18.076252               28.816091      19.677333000000001
   278   4      7.5053070000000002      2.9553769999999999               15.376477
   279   4      15.520796000000001      25.430157000000001                4.845351
   280   4      33.382497000000001      21.038816000000001      19.887619999999998
   281   4               12.549149               27.002644      2.1573000000000002
   282   4      2.0314030000000001               31.926036      16.120149000000001
   283   4      26.010021999999999      22.204823000000001      35.857086000000002
   284   4      24.437183000000001      13.079458000000001      26.218288000000001
   285   4      9.9753039999999995               26.994605      4.5964419999999997
   286   4                0.642181      20.091280999999999      38.303643000000001
   287   4      35.135480999999999      11.590681999999999      25.982417999999999
   288   4   0.0025799999999999998               12.510189               15.139338
   289   4      18.263138000000001      20.441973000000001      37.669158000000003
   290   4      16.987991000000001               20.415519      16.478079000000001
   291   4      3.4901490000000002      36.816577000000002               21.306137
   292   4      29.778918000000001      22.123000999999999      29.529748000000001
   293   4      32.814846000000003               20.049685               31.729523
   294   4               26.702524      18.215814999999999      3.8964669999999999
   295   4      22.229804999999999      32.072358000000001      15.671514999999999
   296   4     0.59617600000000004               20.073812      28.962292999999999
   297   4      31.626819000000001               25.733006      39.016129999999997
   298   4      22.802440000000001                1.753474                4.656015
   299   4      36.146880000000003      27.234514999999998               23.889516
   300   4               34.692504               17.285345      24.094636999999999
   301   4    0.010826000000000001      25.458528999999999               10.888805
   302   4      28.583217000000001      34.335048999999998      25.227685999999999
   303   4      33.001840000000001      9.4326899999999991      9.2640630000000002
   304   4      13.384209999999999      33.154409999999999      40.006728000000003
   305   4      15.380610000000001               39.657567               39.697232
   306   4      16.585878999999998                37.91733    0.037079000000000001
   307   4      35.557316999999998      7.8159010000000002               28.927429
   308   4      31.681328000000001      2.8345660000000001      14.812044999999999
   309   4      3.0799699999999999               12.830377      10.215775000000001
   310   4               18.878415      21.532793999999999      33.965020000000003
   311   4      8.3592180000000003      19.643312999999999      25.103535000000001
   312   4      3.3832810000000002      9.0591220000000003                6.816211
   313   4      33.899517000000003                1.247824      2.0653239999999999
   314   4               11.404266               22.344642      3.0929799999999998
   315   4      35.092643000000002               19.551527               26.741076
   316   4      9.7544609999999992      37.601103999999999      38.210652000000003
   317   4      9.6156459999999999                1.578508      33.332835000000003
   318   4      28.734158999999998               30.582379                1.538006
   319   4      37.448307999999997    0.038497000000000003    0.044178000000000002
   320   4               30.446323               14.220879      27.920331000000001
   321   4               21.289158               29.108964      32.607996999999997
   322   4      34.651902999999997      32.003610000000002               23.808125
   323   4      25.746850999999999      21.487366000000002      17.001325000000001
   324   4      32.591361999999997      36.118673000000001      27.627479999999998
   325   4      28.999282000000001      32.187834000000002      26.433641999999999
   326   4      23.424389000000001      8.8011689999999998                5.359102
   327   4      25.495677000000001      11.971861000000001      18.773472999999999
   328   4      23.476469000000002      39.177157999999999      10.752503000000001
   329   4     0.18715100000000001      33.721169000000003               15.354986
   330   4      22.361602999999999               22.160052      20.107316000000001
   331   4      30.531759999999998                7.589944      16.601611999999999
   332   4      39.001064999999997      33.800257999999999               15.914678
   333   4      13.142969000000001      3.1533069999999999      9.3472159999999995
   334   4      5.3738260000000002      37.995907000000003      16.819375000000001
   335   4      27.018253000000001                6.099621      8.4205120000000004
   336   4      27.536798000000001      9.1653230000000008      9.1352379999999993
   337   4      2.2080880000000001                14.39753      7.2776329999999998
   338   4      31.256913999999998      1.9986679999999999               29.260406
   339   4      22.714382000000001      8.2738399999999999      28.273099999999999
   340   4      24.740265000000001               11.430484      11.431005000000001
   341   4      25.943864999999999               15.673164      7.1767089999999998
   342   4               31.124253      14.153613999999999      40.003286000000003
   343   4      26.694424000000001      27.793548999999999      31.117540999999999
   344   4                2.666741      15.068058000000001                13.82161
   345   4      30.071200999999999      2.1883750000000002               13.089198
   346   4               32.414856      28.745923999999999      33.716124999999998
   347   4      2.2705190000000002                27.57076      28.989280000000001
   348   4      20.406818999999999      11.580437999999999      19.065881999999998
   349   4      36.175845000000002               22.552754               16.995279
   350   4      21.654927000000001      28.570208000000001      12.383471999999999
   351   4               10.974544      1.5847020000000001      16.756429000000001
   352   4      27.201688999999998      15.894372000000001      31.445049999999998
   353   4      38.713149999999999      16.613672000000001      37.617277000000001
   354   4      39.969453000000001      6.1335360000000003                1.891548
   355   4      5.9705130000000004      17.918890000000001               20.327005
   356   4      30.137571000000001      28.556799000000002      10.528947000000001
   357   4      6.2963950000000004      8.1534770000000005      6.6973060000000002
   358   4                3.510831               22.071033      4.3942930000000002
   359   4   0.0080470000000000003               35.053013               11.720488